/*--------------------------------*- C++ -*----------------------------------*\
| =========                 |                                                 |
| \\      /  F ield         | OpenFOAM: The Open Source CFD Toolbox           |
|  \\    /   O peration     | Version:  2.3.0                                 |
|   \\  /    A nd           | Web:      www.OpenFOAM.org                      |
|    \\/     M anipulation  |                                                 |
\*---------------------------------------------------------------------------*/
FoamFile
{
    version     2.0;
    format      ascii;
    class       volScalarField;
    location    "0.002";
    object      C_phAvg2;
}
// * * * * * * * * * * * * * * * * * * * * * * * * * * * * * * * * * * * * * //

dimensions      [1 -3 0 0 0 0 0];

internalField   nonuniform List<scalar> 
100
(
2.03158222212e-07
0
2.22153543408e-06
0
0
4.01819236177e-07
0
1.8963755606e-06
2.3454440832e-07
2.48169719366e-14
4.83873235999e-08
8.5063041163e-07
0
2.48169719366e-14
2.35443952662e-06
0
0
3.2148512866e-07
0
2.97579816849e-06
0
2.48169719366e-14
0
1.76825611233e-06
2.48169719366e-14
1.86156982028e-06
0
1.26074144291e-06
0
6.50113129854e-07
2.48169719366e-14
2.10200145293e-06
3.03466604474e-06
2.48169719366e-14
2.68071950889e-06
4.96339438731e-14
3.96804869006e-06
0
1.82645168969e-06
1.31246662035e-07
0.109200450116
0.103196278759
0.102522439297
0.102429803455
0.102417640773
0.102419073725
0.102416122581
0.102512141407
0.103182102347
0.109363138523
102.101827028
102.079360179
102.084099049
102.08525746
102.085680435
102.085678371
102.085274236
102.084148026
102.079478461
102.101520957
222.395748939
222.398797428
222.398445371
222.39831817
222.398281451
222.398282805
222.39832343
222.398462541
222.398856735
222.395658027
223.531411132
223.531411132
223.531411132
223.531411132
223.531411132
223.531411132
223.531411132
223.531411132
223.531411132
223.531411132
223.531411132
223.531411132
223.531411132
223.531411132
223.531411132
223.531411132
223.531411132
223.531411132
223.531411132
223.531411132
223.531411132
223.531411132
223.531411132
223.531411132
223.531411132
223.531411132
223.531411132
223.531411132
223.531411132
223.531411132
)
;

boundaryField
{
    inletBottom
    {
        type            zeroGradient;
    }
    inletTop
    {
        type            zeroGradient;
    }
    outletBottom
    {
        type            zeroGradient;
    }
    outletTop
    {
        type            zeroGradient;
    }
    bottom
    {
        type            zeroGradient;
    }
    top
    {
        type            zeroGradient;
    }
    frontAndBack
    {
        type            empty;
    }
}


// ************************************************************************* //
