/*--------------------------------*- C++ -*----------------------------------*\
| =========                 |                                                 |
| \\      /  F ield         | OpenFOAM: The Open Source CFD Toolbox           |
|  \\    /   O peration     | Version:  2.3.0                                 |
|   \\  /    A nd           | Web:      www.OpenFOAM.org                      |
|    \\/     M anipulation  |                                                 |
\*---------------------------------------------------------------------------*/
FoamFile
{
    version     2.0;
    format      ascii;
    class       volScalarField;
    location    "0.002";
    object      C_phAvg0;
}
// * * * * * * * * * * * * * * * * * * * * * * * * * * * * * * * * * * * * * //

dimensions      [1 -3 0 0 0 0 0];

internalField   nonuniform List<scalar> 
100
(
693.728177409
693.728178485
693.728175895
693.728178126
693.728179438
693.72817726
693.728178177
693.728176139
693.728177386
693.72817792
693.728177525
693.728176924
693.728177936
693.728177598
693.728175796
693.728178116
693.728178729
693.72817732
693.728179979
693.72817533
693.728177723
693.728178463
693.728178526
693.728176235
693.728179711
693.728176165
693.728177703
693.728176616
693.728177863
693.728177074
693.728178007
693.728175985
693.728175286
693.728178401
693.728175551
693.728178412
693.728174586
693.728179374
693.728176192
693.728177463
693.631288719
693.635536744
693.636007844
693.636068941
693.636075786
693.636074727
693.636079249
693.636015855
693.635547874
693.630847326
345.836554214
345.820113305
345.818830798
345.819022508
345.819004864
345.818993224
345.818956309
345.818625459
345.819534592
345.838005995
1.13566219307
1.13261370385
1.13296576048
1.13309296221
1.13312968048
1.13312832715
1.1330877017
1.1329485912
1.13255439692
1.13575310494
0
0
0
0
0
0
0
0
0
0
0
0
0
0
0
0
0
0
0
0
0
0
0
0
0
0
0
0
0
0
)
;

boundaryField
{
    inletBottom
    {
        type            zeroGradient;
    }
    inletTop
    {
        type            zeroGradient;
    }
    outletBottom
    {
        type            zeroGradient;
    }
    outletTop
    {
        type            zeroGradient;
    }
    bottom
    {
        type            zeroGradient;
    }
    top
    {
        type            zeroGradient;
    }
    frontAndBack
    {
        type            empty;
    }
}


// ************************************************************************* //
