/*--------------------------------*- C++ -*----------------------------------*\
| =========                 |                                                 |
| \\      /  F ield         | OpenFOAM: The Open Source CFD Toolbox           |
|  \\    /   O peration     | Version:  2.3.0                                 |
|   \\  /    A nd           | Web:      www.OpenFOAM.org                      |
|    \\/     M anipulation  |                                                 |
\*---------------------------------------------------------------------------*/
FoamFile
{
    version     2.0;
    format      ascii;
    class       volScalarField;
    location    "0.002";
    object      C_phAvg1;
}
// * * * * * * * * * * * * * * * * * * * * * * * * * * * * * * * * * * * * * //

dimensions      [1 -3 0 0 0 0 0];

internalField   nonuniform List<scalar> 
100
(
231.242725803
231.242726162
231.242725298
231.242726042
231.242726479
231.242725753
231.242726059
231.24272538
231.242725795
231.242725973
231.242725842
231.242725641
231.242725979
231.242725866
231.242725265
231.242726039
231.242726243
231.242725773
231.24272666
231.24272511
231.242725908
231.242726154
231.242726175
231.242725412
231.24272657
231.242725388
231.242725901
231.242725539
231.242725954
231.242725691
231.242726002
231.242725328
231.242725095
231.242726134
231.242725184
231.242726137
231.242724862
231.242726458
231.242725397
231.242725821
231.230414246
231.232170393
231.232373132
231.232404671
231.232409989
231.232409615
231.232408044
231.232375419
231.232173439
231.230692951
115.637417733
115.630577171
115.630228146
115.63032729
115.630330655
115.630326328
115.630303396
115.630153692
115.630364468
115.637510736
0
0
0
0
0
0
0
0
0
0
0
0
0
0
0
0
0
0
0
0
0
0
0
0
0
0
0
0
0
0
0
0
0
0
0
0
0
0
0
0
)
;

boundaryField
{
    inletBottom
    {
        type            zeroGradient;
    }
    inletTop
    {
        type            zeroGradient;
    }
    outletBottom
    {
        type            zeroGradient;
    }
    outletTop
    {
        type            zeroGradient;
    }
    bottom
    {
        type            zeroGradient;
    }
    top
    {
        type            zeroGradient;
    }
    frontAndBack
    {
        type            empty;
    }
}


// ************************************************************************* //
