/*--------------------------------*- C++ -*----------------------------------*\
| =========                 |                                                 |
| \\      /  F ield         | OpenFOAM: The Open Source CFD Toolbox           |
|  \\    /   O peration     | Version:  2.3.0                                 |
|   \\  /    A nd           | Web:      www.OpenFOAM.org                      |
|    \\/     M anipulation  |                                                 |
\*---------------------------------------------------------------------------*/
FoamFile
{
    version     2.0;
    format      ascii;
    class       volVectorField;
    location    "0.002";
    object      gradAlpha1;
}
// * * * * * * * * * * * * * * * * * * * * * * * * * * * * * * * * * * * * * //

dimensions      [0 -1 0 0 0 0 0];

internalField   nonuniform List<vector> 
100
(
(-1.65436122511e-12 -1.65436122511e-12 0)
(0 -4.96308367532e-12 0)
(0 0 0)
(0 0 0)
(0 0 0)
(0 0 0)
(0 0 0)
(0 -1.65436122511e-12 0)
(0 0 0)
(-1.65436122511e-12 1.65436122511e-12 0)
(-1.65436122511e-12 1.65436122511e-12 0)
(1.65436122511e-12 3.30872245021e-12 0)
(-1.65436122511e-12 0 0)
(1.65436122511e-12 -1.65436122511e-12 0)
(0 0 0)
(0 0 0)
(0 0 0)
(0 1.65436122511e-12 0)
(0 0 0)
(0 0 0)
(-1.65436122511e-12 0 0)
(1.65436122511e-12 -3.30872245021e-12 0)
(-1.65436122511e-12 -1.65436122511e-12 0)
(-1.65436122511e-12 -1.65436122511e-12 0)
(3.30872245021e-12 -3.30872245021e-12 0)
(0 -1.65436122511e-12 0)
(0 0 0)
(0 0 0)
(0 0 0)
(0 0 0)
(-3.30872245021e-12 0 0)
(0 0 0)
(0 -3.30872245021e-12 0)
(0 -1.65436122511e-12 0)
(0 -1.65436122511e-12 0)
(3.30872245021e-12 0 0)
(1.65436122511e-12 0 0)
(-4.96308367532e-12 0 0)
(0 -3.30872245021e-12 0)
(0 -4.96308367532e-12 0)
(1461.42735314 -3538.57264686 0)
(-0.100990314429 -2077.24628403 0)
(0.00935858997503 -2077.33791576 0)
(0.00413236762665 -2077.3244248 0)
(0.000886008387464 -2077.31940642 0)
(-0.00111566440729 -2077.31963608 0)
(-0.00464187873478 -2077.32539362 0)
(-0.0107450123252 -2077.34078051 0)
(0.11235244098 -2077.23917308 0)
(0.119532231202 -2077.00728841 0)
(2922.85470628 -5000 0)
(-0.201980628854 -5000 0)
(0.0187171799492 -5000 0)
(0.00826473525413 -5000 0)
(0.0017720167741 -5000 0)
(-0.00223132882203 -5000 0)
(-0.00928375746957 -5000 0)
(-0.0214900246438 -5000 0)
(0.224704881958 -5000 0)
(0.239064462408 -5000 0)
(1461.42735314 -1461.42735314 0)
(-0.100990314427 -2922.75371597 0)
(0.00935858997441 -2922.66208424 0)
(0.00413236762789 -2922.6755752 0)
(0.000886008386637 -2922.68059358 0)
(-0.00111566441143 -2922.68036392 0)
(-0.00464187873499 -2922.67460638 0)
(-0.0107450123208 -2922.65921949 0)
(0.112352440978 -2922.76082692 0)
(0.119532231204 -2922.99271159 0)
(0 0 0)
(0 0 0)
(0 0 0)
(0 0 0)
(0 0 0)
(0 0 0)
(0 0 0)
(0 0 0)
(0 0 0)
(0 0 0)
(0 0 0)
(0 0 0)
(0 0 0)
(0 0 0)
(0 0 0)
(0 0 0)
(0 0 0)
(0 0 0)
(0 0 0)
(0 0 0)
(0 0 0)
(0 0 0)
(0 0 0)
(0 0 0)
(0 0 0)
(0 0 0)
(0 0 0)
(0 0 0)
(0 0 0)
(0 0 0)
)
;

boundaryField
{
    inletBottom
    {
        type            zeroGradient;
    }
    inletTop
    {
        type            zeroGradient;
    }
    outletBottom
    {
        type            zeroGradient;
    }
    outletTop
    {
        type            zeroGradient;
    }
    bottom
    {
        type            zeroGradient;
    }
    top
    {
        type            zeroGradient;
    }
    frontAndBack
    {
        type            empty;
    }
}


// ************************************************************************* //
