/*--------------------------------*- C++ -*----------------------------------*\
| =========                 |                                                 |
| \\      /  F ield         | OpenFOAM: The Open Source CFD Toolbox           |
|  \\    /   O peration     | Version:  2.3.0                                 |
|   \\  /    A nd           | Web:      www.OpenFOAM.org                      |
|    \\/     M anipulation  |                                                 |
\*---------------------------------------------------------------------------*/
FoamFile
{
    version     2.0;
    format      ascii;
    class       volScalarField;
    location    "0.002";
    object      p;
}
// * * * * * * * * * * * * * * * * * * * * * * * * * * * * * * * * * * * * * //

dimensions      [1 -1 -2 0 0 0 0];

internalField   nonuniform List<scalar> 
100
(
29999999.6789
29999999.6789
29999999.6789
29999999.6789
29999999.6789
29999999.6789
29999999.6789
29999999.6789
29999999.6789
29999999.6789
29999999.6789
29999999.6789
29999999.6789
29999999.6789
29999999.6789
29999999.6789
29999999.6789
29999999.6789
29999999.6789
29999999.6789
29999999.6789
29999999.6789
29999999.6789
29999999.6789
29999999.6789
29999999.6789
29999999.6789
29999999.6789
29999999.6789
29999999.6789
29999999.6781
29999999.6782
29999999.6782
29999999.6782
29999999.6782
29999999.6782
29999999.6782
29999999.6782
29999999.6782
29999999.6781
29999999.6774
29999999.6771
29999999.677
29999999.677
29999999.6769
29999999.6769
29999999.677
29999999.677
29999999.6771
29999999.6774
29999999.7232
29999999.723
29999999.7229
29999999.7229
29999999.7229
29999999.7229
29999999.7229
29999999.7229
29999999.723
29999999.7231
29999999.7946
29999999.7944
29999999.7944
29999999.7943
29999999.7943
29999999.7943
29999999.7943
29999999.7944
29999999.7944
29999999.7946
29999999.853
29999999.853
29999999.8529
29999999.8529
29999999.8529
29999999.8529
29999999.8529
29999999.8529
29999999.853
29999999.853
29999999.912
29999999.912
29999999.912
29999999.912
29999999.912
29999999.912
29999999.912
29999999.912
29999999.912
29999999.912
29999999.9707
29999999.9707
29999999.9707
29999999.9706
29999999.9706
29999999.9706
29999999.9706
29999999.9707
29999999.9707
29999999.9707
)
;

boundaryField
{
    inletBottom
    {
        type            calculated;
        value           nonuniform List<scalar> 5(29999999.6789 29999999.6789 29999999.6789 29999999.6781 29999999.6774);
    }
    inletTop
    {
        type            calculated;
        value           nonuniform List<scalar> 5(29999999.7232 29999999.7946 29999999.853 29999999.912 29999999.9707);
    }
    outletBottom
    {
        type            calculated;
        value           nonuniform List<scalar> 5(29999999.6789 29999999.6789 29999999.6789 29999999.6781 29999999.6774);
    }
    outletTop
    {
        type            calculated;
        value           nonuniform List<scalar> 5(29999999.7231 29999999.7946 29999999.853 29999999.912 29999999.9707);
    }
    bottom
    {
        type            calculated;
        value           nonuniform List<scalar> 10(29999999.6789 29999999.6789 29999999.6789 29999999.6789 29999999.6789 29999999.6789 29999999.6789 29999999.6789 29999999.6789 29999999.6789);
    }
    top
    {
        type            calculated;
        value           uniform 30000000;
    }
    frontAndBack
    {
        type            empty;
    }
}


// ************************************************************************* //
