/*--------------------------------*- C++ -*----------------------------------*\
| =========                 |                                                 |
| \\      /  F ield         | OpenFOAM: The Open Source CFD Toolbox           |
|  \\    /   O peration     | Version:  2.3.0                                 |
|   \\  /    A nd           | Web:      www.OpenFOAM.org                      |
|    \\/     M anipulation  |                                                 |
\*---------------------------------------------------------------------------*/
FoamFile
{
    version     2.0;
    format      ascii;
    class       surfaceScalarField;
    location    "0.002";
    object      phi;
}
// * * * * * * * * * * * * * * * * * * * * * * * * * * * * * * * * * * * * * //

dimensions      [0 3 -1 0 0 0 0];

internalField   nonuniform List<scalar> 
180
(
-8.0214045239e-17
8.30792639248e-17
3.83545603535e-17
-7.79026677183e-17
1.57356287915e-16
-9.48019990533e-17
1.69340899128e-16
-2.51752914315e-17
1.04102202081e-16
3.55539132471e-17
2.44417343925e-17
5.02022729714e-17
1.61160018464e-18
1.40261786755e-17
6.23981984447e-17
-3.18464471296e-17
1.14310143738e-16
-8.56729337363e-18
1.18455940473e-16
-2.60624141063e-16
2.90140893465e-16
2.4171169563e-17
-3.61311962588e-16
2.2959797212e-16
-3.00739451026e-16
2.28915023771e-16
-2.63002574801e-17
1.16329449635e-16
1.57979056135e-16
-1.50320953013e-17
1.77659399275e-16
-5.0542671329e-17
5.14859845185e-17
8.21240709332e-17
-1.66123826598e-16
2.70810466795e-16
-1.96367786916e-16
3.59498844997e-16
-1.38952047078e-15
1.62834030968e-15
8.58679019079e-17
-1.83700367331e-15
5.30321278787e-16
-7.44083648124e-16
4.26587917213e-16
8.76386084653e-17
1.35910019535e-16
4.44187492126e-16
-1.55143501432e-16
4.80537322981e-16
-3.01829735497e-16
1.95684745772e-16
4.01426974783e-17
-5.0242500684e-16
1.27455241481e-15
-1.42829394097e-15
1.63856262565e-15
-5.73112617368e-15
7.83223649856e-15
1.55931531614e-15
-9.11667980498e-15
1.56451014554e-15
-7.3884024234e-16
8.41001274139e-16
8.1384251144e-16
1.75502172797e-16
1.12425577131e-15
-4.97796596046e-16
1.14901022062e-15
-1.22582490276e-15
9.44751938069e-16
-1.35908133813e-15
-3.67648402152e-16
5.4486245071e-15
-8.23139105908e-15
7.72815354158e-15
3.07140373732e-14
4.20531375841e-13
1.05959345351e-14
4.35036717097e-13
3.59393777602e-15
4.26512691474e-13
1.18631808785e-15
4.2264241684e-13
2.11872627071e-16
4.21302484304e-13
-6.97306268884e-16
4.21273648468e-13
-2.92159641159e-15
4.22532756965e-13
-9.43307695403e-15
4.2636070172e-13
-2.8329323594e-14
4.34677325915e-13
4.22786706485e-13
-2.6885921645e-15
2.21341920628e-11
-3.75105539844e-15
2.20235891165e-11
-6.80689405939e-16
2.20331031388e-11
1.46205288271e-16
2.2037875751e-11
3.07652145207e-16
2.20393244533e-11
5.51014864154e-16
2.2039150094e-11
1.80425817956e-15
2.2037225748e-11
6.07499949811e-15
2.20313444147e-11
7.92559661627e-15
2.20190804897e-11
2.21368197127e-11
6.57240276139e-14
2.39455634789e-11
2.14977840615e-14
2.39378518546e-11
7.96511867716e-15
2.39166297133e-11
3.05384306566e-15
2.39128320146e-11
5.06758833002e-16
2.39119260957e-11
-2.03588262407e-15
2.39117323659e-11
-6.96765455747e-15
2.39121914154e-11
-2.10870420715e-14
2.39153630976e-11
-6.78722463127e-14
2.39356494382e-11
2.39467202518e-11
-5.22980347615e-15
2.3937969105e-11
5.40340549643e-15
2.39199319176e-11
4.50475606332e-15
2.39102357881e-11
2.32587981417e-15
2.39077119454e-11
3.34534002394e-16
2.39066337878e-11
-1.70759444956e-15
2.39064822107e-11
-4.06323448767e-15
2.39072523884e-11
-5.48712948263e-15
2.39094979377e-11
3.7479045069e-15
2.39191084495e-11
2.39381758329e-11
-2.24229487355e-15
2.39379387497e-11
7.07961936672e-16
2.39169776353e-11
1.46459803627e-15
2.39094671093e-11
9.89852579187e-16
2.39081886239e-11
1.7781723333e-16
2.39074628668e-11
-6.9216784825e-16
2.39073416509e-11
-1.29194326254e-15
2.39078575203e-11
-7.94867723681e-16
2.39090049843e-11
1.75393991454e-15
2.39165610868e-11
2.39379200518e-11
1.48054053651e-15
5.51933567374e-16
5.11137059056e-16
3.45004874192e-16
6.02075627581e-17
-2.44035816477e-16
-4.55775740283e-16
-5.8634180085e-16
-1.58062005613e-15
)
;

boundaryField
{
    inletBottom
    {
        type            calculated;
        value           nonuniform List<scalar> 5(4.06288186309e-17 5.35889068224e-17 5.23983963692e-17 -4.81080609772e-16 -2.5222125771e-15);
    }
    inletTop
    {
        type            calculated;
        value           nonuniform List<scalar> 5(1.9636242617e-14 -5.79423878897e-15 5.54586284373e-15 2.26912054814e-15 2.3901522017e-16);
    }
    outletBottom
    {
        type            calculated;
        value           nonuniform List<scalar> 5(3.67788151757e-17 4.21774268587e-17 -2.39967531329e-18 -6.48049430339e-16 -2.094967088e-15);
    }
    outletTop
    {
        type            calculated;
        value           nonuniform List<scalar> 5(2.13488842586e-14 -6.70713864164e-15 5.02210285073e-15 2.00795869298e-15 1.93837579438e-16);
    }
    bottom
    {
        type            calculated;
        value           nonuniform List<scalar> 10(-4.45254837754e-17 -3.94414585554e-17 -1.57274571901e-17 1.37359951018e-17 3.19193767035e-17 3.04215224148e-17 9.54961417709e-18 -2.12823646315e-17 -4.29950318509e-17 -4.10935602875e-17);
    }
    top
    {
        type            calculated;
        value           nonuniform List<scalar> 10(2.39362270352e-11 2.39178948117e-11 2.39095177794e-11 2.39083706492e-11 2.39077474587e-11 2.3907640927e-11 2.39080852677e-11 2.39091303956e-11 2.39175492396e-11 2.39361461341e-11);
    }
    frontAndBack
    {
        type            empty;
        value           nonuniform 0();
    }
}


// ************************************************************************* //
