/*--------------------------------*- C++ -*----------------------------------*\
| =========                 |                                                 |
| \\      /  F ield         | OpenFOAM: The Open Source CFD Toolbox           |
|  \\    /   O peration     | Version:  2.3.0                                 |
|   \\  /    A nd           | Web:      www.OpenFOAM.org                      |
|    \\/     M anipulation  |                                                 |
\*---------------------------------------------------------------------------*/
FoamFile
{
    version     2.0;
    format      ascii;
    class       surfaceScalarField;
    location    "0.002";
    object      phiAlpha1;
}
// * * * * * * * * * * * * * * * * * * * * * * * * * * * * * * * * * * * * * //

dimensions      [0 3 -1 0 0 0 0];

internalField   nonuniform List<scalar> 
180
(
-3.64759294265e-16
3.64035558998e-16
-4.46759544647e-16
2.11177227413e-16
-3.92587767359e-16
-8.18707558232e-17
-2.35270796823e-16
-3.11496261344e-16
-2.11563875384e-17
-4.3395020797e-16
1.90858198523e-16
-4.28444931266e-16
3.3684236492e-16
-2.99377770386e-16
3.82974307901e-16
-7.20607163666e-17
3.14659549844e-16
2.03087946363e-16
3.13064912911e-16
-6.060903197e-16
5.83156641316e-16
-7.76348699443e-16
3.82355236467e-16
-6.93588192953e-16
-1.65170880841e-16
-4.07923493873e-16
-5.97214146209e-16
-1.25859672813e-17
-8.26742314447e-16
3.75605528488e-16
-8.1743617755e-16
6.4255339163e-16
-5.68008375725e-16
6.9980414797e-16
-1.28963910265e-16
5.19453158383e-16
3.79954035366e-16
4.41298907381e-16
-8.43566461766e-16
6.91923951454e-16
-1.1998991842e-15
7.37387874129e-16
-1.10210516161e-15
-2.64355399764e-16
-6.39476817539e-16
-1.05793080194e-15
-2.55039592896e-18
-1.46676784288e-15
6.28441495994e-16
-1.44641549824e-15
1.05781316795e-15
-9.9758424369e-16
1.08407916941e-15
-1.53866905176e-16
6.22615910492e-16
8.40982039383e-16
3.178905972e-16
-8.99841034153e-16
-4.37503782085e-17
-2.12017294272e-15
1.95999228841e-15
-1.96661221274e-15
-4.14635306332e-16
-1.10067522242e-15
-1.92507836815e-15
1.75046061462e-17
-2.58204950411e-15
1.13063936406e-15
-2.56077673274e-15
1.97471901414e-15
-1.83737397647e-15
1.99578148037e-15
-1.77541303756e-16
2.08763186986e-16
2.62997493725e-15
-1.13346810673e-15
3.83720382791e-15
-1.54223136126e-15
-4.13168562897e-15
9.45958178101e-15
-3.5696534909e-15
-2.52209772944e-15
-1.81024340289e-15
-5.41492934073e-15
3.93944812958e-17
-6.19819906764e-15
1.90901785478e-15
-6.19521347603e-15
3.73124771052e-15
-5.40432598179e-15
4.43889963245e-15
-2.43875272003e-15
-3.40554023946e-15
9.9949450524e-15
-2.11852294127e-15
-2.54831548335e-14
0
-9.27612990713e-15
0
-3.65494100134e-15
0
-1.40592970947e-15
0
3.45877682523e-17
0
1.49737340717e-15
0
3.86344803354e-15
0
9.90040478656e-15
0
2.76037418723e-14
0
0
0
0
0
0
0
0
0
0
0
0
0
0
0
0
0
0
0
0
0
-0
0
-0
0
-0
0
-0
0
0
0
0
0
0
0
0
0
0
0
0
-0
0
-0
0
-0
0
-0
0
0
0
0
0
0
0
0
0
0
0
0
-0
-0
-0
-0
0
0
0
0
0
)
;

boundaryField
{
    inletBottom
    {
        type            calculated;
        value           nonuniform List<scalar> 5(2.1889350259e-16 3.87021549566e-16 7.34566647691e-16 1.6348731222e-15 3.1409201778e-15);
    }
    inletTop
    {
        type            calculated;
        value           nonuniform List<scalar> 5(1.5684664994e-15 0 0 0 0);
    }
    outletBottom
    {
        type            calculated;
        value           nonuniform List<scalar> 5(2.23786829047e-16 3.94436344191e-16 7.46727067824e-16 1.6602637837e-15 3.14755655431e-15);
    }
    outletTop
    {
        type            calculated;
        value           nonuniform List<scalar> 5(1.3478552251e-15 0 0 0 0);
    }
    bottom
    {
        type            calculated;
        value           nonuniform List<scalar> 10(-2.17950129846e-16 -1.3050757059e-16 3.01007139793e-17 1.53365364881e-16 2.17131309258e-16 2.16864757958e-16 1.52506751663e-16 2.79789735841e-17 -1.34519618804e-16 -2.22708374862e-16);
    }
    top
    {
        type            calculated;
        value           uniform 0;
    }
    frontAndBack
    {
        type            empty;
        value           nonuniform 0();
    }
}


// ************************************************************************* //
