/*--------------------------------*- C++ -*----------------------------------*\
| =========                 |                                                 |
| \\      /  F ield         | OpenFOAM: The Open Source CFD Toolbox           |
|  \\    /   O peration     | Version:  2.3.0                                 |
|   \\  /    A nd           | Web:      www.OpenFOAM.org                      |
|    \\/     M anipulation  |                                                 |
\*---------------------------------------------------------------------------*/
FoamFile
{
    version     2.0;
    format      ascii;
    class       volVectorField;
    location    "0.002";
    object      U;
}
// * * * * * * * * * * * * * * * * * * * * * * * * * * * * * * * * * * * * * //

dimensions      [0 1 -1 0 0 0 0];

internalField   nonuniform List<vector> 
100
(
(-5.71586409366e-09 -3.52526974145e-09 0)
(-2.16515016142e-09 -1.22367126319e-08 0)
(9.19748393049e-09 -1.39392293951e-08 0)
(1.58301410301e-08 -1.10885081475e-08 0)
(1.35114521994e-08 -8.37691934197e-09 0)
(6.66905616908e-09 -7.60596472817e-09 0)
(1.86564144566e-09 -9.0258568227e-09 0)
(3.78355683553e-09 -1.06862671771e-08 0)
(8.78291384674e-09 -8.68059515262e-09 0)
(7.22801635225e-09 -1.51519005644e-09 0)
(-1.54529127529e-08 1.19902284637e-07 0)
(-1.14413489784e-08 5.46651714696e-08 0)
(1.16562461165e-08 5.70791348082e-08 0)
(2.1971263479e-08 7.53712491488e-08 0)
(1.6939243744e-08 8.81749472928e-08 0)
(5.51389545652e-09 8.98670653013e-08 0)
(-2.19077155676e-09 8.10975411263e-08 0)
(2.67777633956e-09 6.66119195866e-08 0)
(1.70057703418e-08 6.57754597745e-08 0)
(1.53311566098e-08 1.22355196731e-07 0)
(-7.25663327518e-08 3.18819750288e-06 0)
(-6.28466976799e-08 2.87068270973e-06 0)
(2.84374947531e-08 2.93779102776e-06 0)
(4.57889666975e-08 3.00127519876e-06 0)
(2.74297836337e-08 3.03099515389e-06 0)
(-1.0987325266e-10 3.03391660151e-06 0)
(-2.04621335819e-08 3.0106219422e-06 0)
(-1.0176125178e-08 2.95558260568e-06 0)
(6.23104911266e-08 2.89218495993e-06 0)
(6.39290424854e-08 3.17968010702e-06 0)
(-2.65539473773e-07 -6.29603400446e-06 0)
(-1.85441181727e-07 -4.40418186904e-06 0)
(1.4207974768e-07 -3.89825332545e-06 0)
(1.148808223e-07 -3.76546846921e-06 0)
(4.94324481283e-08 -3.73246633819e-06 0)
(-1.46677583456e-08 -3.72896608767e-06 0)
(-8.01544373228e-08 -3.75195976486e-06 0)
(-1.15484081287e-07 -3.86389549064e-06 0)
(1.64624452028e-07 -4.3207963896e-06 0)
(2.30584275944e-07 -6.14469528534e-06 0)
(1.6863657084e-06 -0.00021827285242 0)
(2.11167583037e-06 -0.00021880094809 0)
(6.98909965803e-07 -0.000218777365553 0)
(2.26565860761e-07 -0.000218920441476 0)
(6.79029509908e-08 -0.000218978522477 0)
(-2.2758422303e-08 -0.000218977853528 0)
(-1.69389892521e-07 -0.000218915551957 0)
(-6.08039515965e-07 -0.000218756404309 0)
(-1.93900282508e-06 -0.000218771080172 0)
(-1.56509444794e-06 -0.000218857032347 0)
(-4.22557017366e-07 0.000314477305572 0)
(-5.24149275856e-07 0.000313458246558 0)
(-2.03129840598e-07 0.00031289575688 0)
(-1.58916802446e-08 0.000312722559554 0)
(2.39127912527e-08 0.000312663024688 0)
(4.13808615656e-08 0.000312656217677 0)
(1.05132908483e-07 0.000312697034433 0)
(3.68738453687e-07 0.000312837413373 0)
(9.18130553249e-07 0.000313340398137 0)
(7.17020280118e-07 0.000315450178968 0)
(3.59262664723e-06 0.00287864995957 0)
(4.52320951589e-06 0.00287647497486 0)
(1.35693592807e-06 0.00287629653623 0)
(5.43480269172e-07 0.00287650333706 0)
(1.78016730548e-07 0.0028765723383 0)
(-7.6708483133e-08 0.00287655002183 0)
(-4.42288188709e-07 0.00287642422456 0)
(-1.26816357079e-06 0.00287610335541 0)
(-4.59651303295e-06 0.00287601856463 0)
(-3.71041961836e-06 0.00287802453492 0)
(-2.79359682774e-07 0.00243567599184 0)
(5.28179662531e-09 0.00242941250304 0)
(4.47651278661e-07 0.00242777414729 0)
(3.33760521897e-07 0.00242745471284 0)
(1.30975016397e-07 0.00242735928132 0)
(-6.64862309555e-08 0.00242734173424 0)
(-2.80229520749e-07 0.00242739860621 0)
(-4.27299372544e-07 0.00242767136251 0)
(-9.0221957409e-08 0.002429256374 0)
(1.92471316171e-07 0.00243561906463 0)
(-1.54958714058e-07 0.00237990825954 0)
(-9.42949511959e-08 0.00237733028373 0)
(1.09673336162e-07 0.00237648404285 0)
(1.22804617986e-07 0.00237629305631 0)
(5.8298225604e-08 0.00237620336664 0)
(-2.54207674209e-08 0.00237618980721 0)
(-9.89264738255e-08 0.00237625391303 0)
(-1.04751326711e-07 0.00237642578545 0)
(6.36219056193e-08 0.00237727360359 0)
(1.26947821455e-07 0.00237992682513 0)
(6.88146952704e-08 0.00239686788545 0)
(1.0083488559e-07 0.00239529562293 0)
(5.3347432818e-08 0.00239448860758 0)
(4.38914047916e-08 0.00239436211098 0)
(2.05923435157e-08 0.0023942918006 0)
(-9.37886443576e-09 0.00239428047447 0)
(-3.58691345954e-08 0.00239433152601 0)
(-5.2076560873e-08 0.00239444659362 0)
(-1.09382539021e-07 0.0023952583501 0)
(-7.60997231727e-08 0.00239686403859 0)
)
;

boundaryField
{
    inletBottom
    {
        type            zeroGradient;
    }
    inletTop
    {
        type            zeroGradient;
    }
    outletBottom
    {
        type            zeroGradient;
    }
    outletTop
    {
        type            zeroGradient;
    }
    bottom
    {
        type            zeroGradient;
    }
    top
    {
        type            zeroGradient;
    }
    frontAndBack
    {
        type            empty;
    }
}


// ************************************************************************* //
