/*--------------------------------*- C++ -*----------------------------------*\
| =========                 |                                                 |
| \\      /  F ield         | OpenFOAM: The Open Source CFD Toolbox           |
|  \\    /   O peration     | Version:  2.3.0                                 |
|   \\  /    A nd           | Web:      www.OpenFOAM.org                      |
|    \\/     M anipulation  |                                                 |
\*---------------------------------------------------------------------------*/
FoamFile
{
    version     2.0;
    format      ascii;
    class       volScalarField;
    location    "0.002";
    object      Y10;
}
// * * * * * * * * * * * * * * * * * * * * * * * * * * * * * * * * * * * * * //

dimensions      [0 0 0 0 0 0 0];

internalField   nonuniform List<scalar> 
100
(
0.749999999835
0.750000000998
0.749999998199
0.75000000061
0.750000002028
0.749999999674
0.750000000665
0.749999998462
0.74999999981
0.750000000387
0.749999999961
0.74999999931
0.750000000405
0.75000000004
0.749999998091
0.7500000006
0.750000001262
0.749999999739
0.750000002614
0.749999997587
0.750000000174
0.750000000975
0.750000001043
0.749999998566
0.750000002324
0.749999998491
0.750000000153
0.749999998978
0.750000000326
0.749999999473
0.750000000482
0.749999998296
0.749999997539
0.750000000908
0.749999997826
0.75000000092
0.749999996783
0.750000001959
0.749999998519
0.749999999894
0.74989525201
0.749899844614
0.749900353927
0.749900419981
0.749900427381
0.749900426236
0.749900431124
0.749900362588
0.749899856647
0.749894774814
0.696774011281
0.69682977357
0.696820218007
0.696817644742
0.696816772435
0.696816784416
0.696817638396
0.696820228093
0.696829858279
0.696778429421
0
0
0
0
0
0
0
0
0
0
0
0
0
0
0
0
0
0
0
0
0
0
0
0
0
0
0
0
0
0
0
0
0
0
0
0
0
0
0
0
)
;

boundaryField
{
    inletBottom
    {
        type            zeroGradient;
    }
    inletTop
    {
        type            zeroGradient;
    }
    outletBottom
    {
        type            zeroGradient;
    }
    outletTop
    {
        type            zeroGradient;
    }
    bottom
    {
        type            zeroGradient;
    }
    top
    {
        type            zeroGradient;
    }
    frontAndBack
    {
        type            empty;
    }
}


// ************************************************************************* //
