/*--------------------------------*- C++ -*----------------------------------*\
| =========                 |                                                 |
| \\      /  F ield         | OpenFOAM: The Open Source CFD Toolbox           |
|  \\    /   O peration     | Version:  2.3.0                                 |
|   \\  /    A nd           | Web:      www.OpenFOAM.org                      |
|    \\/     M anipulation  |                                                 |
\*---------------------------------------------------------------------------*/
FoamFile
{
    version     2.0;
    format      ascii;
    class       volScalarField;
    location    "0.002";
    object      Y11;
}
// * * * * * * * * * * * * * * * * * * * * * * * * * * * * * * * * * * * * * //

dimensions      [0 0 0 0 0 0 0];

internalField   nonuniform List<scalar> 
100
(
0.249999999945
0.250000000333
0.2499999994
0.250000000203
0.250000000676
0.249999999891
0.250000000222
0.249999999487
0.249999999937
0.250000000129
0.249999999987
0.24999999977
0.250000000135
0.250000000013
0.249999999364
0.2500000002
0.250000000421
0.249999999913
0.250000000871
0.249999999196
0.250000000058
0.250000000325
0.250000000348
0.249999999522
0.250000000775
0.249999999497
0.250000000051
0.249999999659
0.250000000109
0.249999999824
0.250000000161
0.249999999432
0.24999999918
0.250000000303
0.249999999275
0.250000000307
0.249999998928
0.250000000653
0.249999999506
0.249999999965
0.249986689735
0.249988588332
0.249988807517
0.249988841613
0.249988847363
0.249988846958
0.24998884526
0.249988809989
0.249988591625
0.249986991047
0.253524572946
0.253546749429
0.253543849591
0.253542954027
0.253542640423
0.253542644471
0.25354296779
0.253543876673
0.253546830288
0.253521025341
0
0
0
0
0
0
0
0
0
0
0
0
0
0
0
0
0
0
0
0
0
0
0
0
0
0
0
0
0
0
0
0
0
0
0
0
0
0
0
0
)
;

boundaryField
{
    inletBottom
    {
        type            zeroGradient;
    }
    inletTop
    {
        type            zeroGradient;
    }
    outletBottom
    {
        type            zeroGradient;
    }
    outletTop
    {
        type            zeroGradient;
    }
    bottom
    {
        type            zeroGradient;
    }
    top
    {
        type            zeroGradient;
    }
    frontAndBack
    {
        type            empty;
    }
}


// ************************************************************************* //
